<?xml version="1.0" encoding="UTF-8"?>

<!-- generated on Monday 14 October 2019 03:21:05 PM IST by SUMO gui Version 0.32.0
<?xml version="1.0" encoding="UTF-8"?>

<configuration xmlns:xsi="http://www.w3.org/2001/XMLSchema-instance" xsi:noNamespaceSchemaLocation="http://sumo.dlr.de/xsd/sumoConfiguration.xsd">

    <input>
        <net-file value="/home/efkon/ATCS/sumo_medium/scenario1.net.xml"/>
        <route-files value="/home/efkon/ATCS/sumo_medium/scenario1.rou.xml"/>
    </input>

    <output>
        <tripinfo-output value="/home/efkon/ATCS/sumo_medium/scenario1tripinfo.xml"/>
    </output>

    <processing>
        <time-to-teleport value="-1"/>
    </processing>

    <report>
        <xml-validation value="never"/>
        <duration-log.disable value="true"/>
        <no-step-log value="true"/>
    </report>

</configuration>
-->

<tripinfos xmlns:xsi="http://www.w3.org/2001/XMLSchema-instance" xsi:noNamespaceSchemaLocation="http://sumo.dlr.de/xsd/tripinfo_file.xsd">
    <tripinfo id="left_1" depart="0.00" departLane="11_0" departPos="5.10" departSpeed="0.00" departDelay="0.00" arrival="181.00" arrivalLane="11_0" arrivalPos="100.00" arrivalSpeed="7.20" duration="181.00" routeLength="523.54" waitSteps="117" timeLoss="143.31" rerouteNo="0" devices="tripinfo_left_1" vType="SUMO_DEFAULT_TYPE" speedFactor="1.00" vaporized=""/>
    <tripinfo id="left_0" depart="0.00" departLane="7_0" departPos="5.10" departSpeed="0.00" departDelay="0.00" arrival="181.00" arrivalLane="7_0" arrivalPos="100.00" arrivalSpeed="7.20" duration="181.00" routeLength="523.54" waitSteps="117" timeLoss="143.31" rerouteNo="0" devices="tripinfo_left_0" vType="SUMO_DEFAULT_TYPE" speedFactor="1.00" vaporized=""/>
    <tripinfo id="left_3" depart="4.00" departLane="11_0" departPos="5.10" departSpeed="0.00" departDelay="2.00" arrival="183.00" arrivalLane="11_0" arrivalPos="100.00" arrivalSpeed="8.00" duration="179.00" routeLength="523.54" waitSteps="115" timeLoss="141.24" rerouteNo="0" devices="tripinfo_left_3" vType="SUMO_DEFAULT_TYPE" speedFactor="1.00" vaporized=""/>
    <tripinfo id="left_2" depart="4.00" departLane="7_0" departPos="5.10" departSpeed="0.00" departDelay="2.00" arrival="183.00" arrivalLane="7_0" arrivalPos="100.00" arrivalSpeed="8.00" duration="179.00" routeLength="523.54" waitSteps="115" timeLoss="141.24" rerouteNo="0" devices="tripinfo_left_2" vType="SUMO_DEFAULT_TYPE" speedFactor="1.00" vaporized=""/>
    <tripinfo id="left_7" depart="10.00" departLane="11_0" departPos="5.10" departSpeed="0.00" departDelay="0.00" arrival="185.00" arrivalLane="11_0" arrivalPos="100.00" arrivalSpeed="8.80" duration="175.00" routeLength="523.54" waitSteps="110" timeLoss="137.11" rerouteNo="0" devices="tripinfo_left_7" vType="SUMO_DEFAULT_TYPE" speedFactor="1.00" vaporized=""/>
    <tripinfo id="left_6" depart="10.00" departLane="7_0" departPos="5.10" departSpeed="0.00" departDelay="0.00" arrival="185.00" arrivalLane="7_0" arrivalPos="100.00" arrivalSpeed="8.80" duration="175.00" routeLength="523.54" waitSteps="110" timeLoss="137.11" rerouteNo="0" devices="tripinfo_left_6" vType="SUMO_DEFAULT_TYPE" speedFactor="1.00" vaporized=""/>
    <tripinfo id="right_4" depart="3.00" departLane="1_0" departPos="5.10" departSpeed="0.00" departDelay="0.00" arrival="321.00" arrivalLane="1_0" arrivalPos="95.25" arrivalSpeed="12.00" duration="318.00" routeLength="699.79" waitSteps="230" timeLoss="267.33" rerouteNo="0" devices="tripinfo_right_4" vType="SUMO_DEFAULT_TYPE" speedFactor="1.00" vaporized=""/>
    <tripinfo id="right_8" depart="11.00" departLane="1_0" departPos="5.10" departSpeed="0.00" departDelay="0.00" arrival="323.00" arrivalLane="1_0" arrivalPos="95.25" arrivalSpeed="12.80" duration="312.00" routeLength="699.79" waitSteps="225" timeLoss="260.92" rerouteNo="0" devices="tripinfo_right_8" vType="SUMO_DEFAULT_TYPE" speedFactor="1.00" vaporized=""/>
    <tripinfo id="right_10" depart="22.00" departLane="1_0" departPos="5.10" departSpeed="0.00" departDelay="0.00" arrival="324.00" arrivalLane="1_0" arrivalPos="95.25" arrivalSpeed="12.80" duration="302.00" routeLength="699.79" waitSteps="215" timeLoss="251.42" rerouteNo="0" devices="tripinfo_right_10" vType="SUMO_DEFAULT_TYPE" speedFactor="1.00" vaporized=""/>
    <tripinfo id="right_13" depart="26.00" departLane="1_0" departPos="5.10" departSpeed="0.00" departDelay="1.00" arrival="326.00" arrivalLane="1_0" arrivalPos="95.25" arrivalSpeed="13.60" duration="300.00" routeLength="699.79" waitSteps="213" timeLoss="248.94" rerouteNo="0" devices="tripinfo_right_13" vType="SUMO_DEFAULT_TYPE" speedFactor="1.00" vaporized=""/>
    <tripinfo id="right_14" depart="31.00" departLane="1_0" departPos="5.10" departSpeed="0.00" departDelay="0.00" arrival="327.00" arrivalLane="1_0" arrivalPos="95.25" arrivalSpeed="13.60" duration="296.00" routeLength="699.79" waitSteps="210" timeLoss="245.45" rerouteNo="0" devices="tripinfo_right_14" vType="SUMO_DEFAULT_TYPE" speedFactor="1.00" vaporized=""/>
    <tripinfo id="right_16" depart="39.00" departLane="1_0" departPos="5.10" departSpeed="0.00" departDelay="5.00" arrival="329.00" arrivalLane="1_0" arrivalPos="95.25" arrivalSpeed="13.89" duration="290.00" routeLength="699.79" waitSteps="205" timeLoss="238.95" rerouteNo="0" devices="tripinfo_right_16" vType="SUMO_DEFAULT_TYPE" speedFactor="1.00" vaporized=""/>
    <tripinfo id="right_17" depart="43.00" departLane="1_0" departPos="5.10" departSpeed="0.00" departDelay="3.00" arrival="330.00" arrivalLane="1_0" arrivalPos="95.25" arrivalSpeed="13.89" duration="287.00" routeLength="699.79" waitSteps="203" timeLoss="236.46" rerouteNo="0" devices="tripinfo_right_17" vType="SUMO_DEFAULT_TYPE" speedFactor="1.00" vaporized=""/>
    <tripinfo id="right_20" depart="47.00" departLane="1_0" departPos="5.10" departSpeed="0.00" departDelay="3.00" arrival="332.00" arrivalLane="1_0" arrivalPos="95.25" arrivalSpeed="13.89" duration="285.00" routeLength="699.79" waitSteps="201" timeLoss="233.96" rerouteNo="0" devices="tripinfo_right_20" vType="SUMO_DEFAULT_TYPE" speedFactor="1.00" vaporized=""/>
    <tripinfo id="right_23" depart="56.00" departLane="1_0" departPos="5.10" departSpeed="0.00" departDelay="0.00" arrival="333.00" arrivalLane="1_0" arrivalPos="95.25" arrivalSpeed="13.89" duration="277.00" routeLength="699.79" waitSteps="194" timeLoss="226.46" rerouteNo="0" devices="tripinfo_right_23" vType="SUMO_DEFAULT_TYPE" speedFactor="1.00" vaporized=""/>
    <tripinfo id="right_24" depart="63.00" departLane="1_0" departPos="5.10" departSpeed="0.00" departDelay="0.00" arrival="335.00" arrivalLane="1_0" arrivalPos="95.25" arrivalSpeed="13.89" duration="272.00" routeLength="699.79" waitSteps="189" timeLoss="220.97" rerouteNo="0" devices="tripinfo_right_24" vType="SUMO_DEFAULT_TYPE" speedFactor="1.00" vaporized=""/>
    <tripinfo id="left_12" depart="22.00" departLane="11_0" departPos="5.10" departSpeed="0.00" departDelay="0.00" arrival="353.00" arrivalLane="11_0" arrivalPos="100.00" arrivalSpeed="8.80" duration="331.00" routeLength="523.54" waitSteps="255" timeLoss="293.11" rerouteNo="0" devices="tripinfo_left_12" vType="SUMO_DEFAULT_TYPE" speedFactor="1.00" vaporized=""/>
    <tripinfo id="left_19" depart="41.00" departLane="11_0" departPos="5.10" departSpeed="0.00" departDelay="0.00" arrival="355.00" arrivalLane="11_0" arrivalPos="100.00" arrivalSpeed="9.60" duration="314.00" routeLength="523.54" waitSteps="237" timeLoss="275.92" rerouteNo="0" devices="tripinfo_left_19" vType="SUMO_DEFAULT_TYPE" speedFactor="1.00" vaporized=""/>
    <tripinfo id="left_22" depart="49.00" departLane="11_0" departPos="5.10" departSpeed="0.00" departDelay="0.00" arrival="357.00" arrivalLane="11_0" arrivalPos="100.00" arrivalSpeed="10.40" duration="308.00" routeLength="523.54" waitSteps="231" timeLoss="269.68" rerouteNo="0" devices="tripinfo_left_22" vType="SUMO_DEFAULT_TYPE" speedFactor="1.00" vaporized=""/>
    <tripinfo id="left_11" depart="22.00" departLane="7_0" departPos="5.10" departSpeed="0.00" departDelay="0.00" arrival="357.00" arrivalLane="7_0" arrivalPos="100.00" arrivalSpeed="10.40" duration="335.00" routeLength="523.54" waitSteps="258" timeLoss="296.68" rerouteNo="0" devices="tripinfo_left_11" vType="SUMO_DEFAULT_TYPE" speedFactor="1.00" vaporized=""/>
    <tripinfo id="left_27" depart="67.00" departLane="11_0" departPos="5.10" departSpeed="0.00" departDelay="0.00" arrival="358.00" arrivalLane="11_0" arrivalPos="100.00" arrivalSpeed="10.40" duration="291.00" routeLength="523.54" waitSteps="215" timeLoss="253.18" rerouteNo="0" devices="tripinfo_left_27" vType="SUMO_DEFAULT_TYPE" speedFactor="1.00" vaporized=""/>
    <tripinfo id="left_18" depart="41.00" departLane="7_0" departPos="5.10" departSpeed="0.00" departDelay="0.00" arrival="358.00" arrivalLane="7_0" arrivalPos="100.00" arrivalSpeed="10.40" duration="317.00" routeLength="523.54" waitSteps="240" timeLoss="279.18" rerouteNo="0" devices="tripinfo_left_18" vType="SUMO_DEFAULT_TYPE" speedFactor="1.00" vaporized=""/>
    <tripinfo id="left_31" depart="74.00" departLane="11_0" departPos="5.10" departSpeed="0.00" departDelay="0.00" arrival="360.00" arrivalLane="11_0" arrivalPos="100.00" arrivalSpeed="11.20" duration="286.00" routeLength="523.54" waitSteps="210" timeLoss="247.88" rerouteNo="0" devices="tripinfo_left_31" vType="SUMO_DEFAULT_TYPE" speedFactor="1.00" vaporized=""/>
    <tripinfo id="left_21" depart="49.00" departLane="7_0" departPos="5.10" departSpeed="0.00" departDelay="0.00" arrival="360.00" arrivalLane="7_0" arrivalPos="100.00" arrivalSpeed="11.20" duration="311.00" routeLength="523.54" waitSteps="234" timeLoss="272.88" rerouteNo="0" devices="tripinfo_left_21" vType="SUMO_DEFAULT_TYPE" speedFactor="1.00" vaporized=""/>
    <tripinfo id="left_40" depart="117.00" departLane="11_0" departPos="5.10" departSpeed="0.00" departDelay="0.00" arrival="362.00" arrivalLane="11_0" arrivalPos="100.00" arrivalSpeed="12.00" duration="245.00" routeLength="523.54" waitSteps="169" timeLoss="206.52" rerouteNo="0" devices="tripinfo_left_40" vType="SUMO_DEFAULT_TYPE" speedFactor="1.00" vaporized=""/>
    <tripinfo id="left_26" depart="67.00" departLane="7_0" departPos="5.10" departSpeed="0.00" departDelay="0.00" arrival="362.00" arrivalLane="7_0" arrivalPos="100.00" arrivalSpeed="12.00" duration="295.00" routeLength="523.54" waitSteps="218" timeLoss="256.52" rerouteNo="0" devices="tripinfo_left_26" vType="SUMO_DEFAULT_TYPE" speedFactor="1.00" vaporized=""/>
    <tripinfo id="left_42" depart="121.00" departLane="11_0" departPos="5.10" departSpeed="0.00" departDelay="1.00" arrival="363.00" arrivalLane="11_0" arrivalPos="100.00" arrivalSpeed="12.00" duration="242.00" routeLength="523.54" waitSteps="167" timeLoss="204.02" rerouteNo="0" devices="tripinfo_left_42" vType="SUMO_DEFAULT_TYPE" speedFactor="1.00" vaporized=""/>
    <tripinfo id="left_30" depart="74.00" departLane="7_0" departPos="5.10" departSpeed="0.00" departDelay="0.00" arrival="363.00" arrivalLane="7_0" arrivalPos="100.00" arrivalSpeed="12.00" duration="289.00" routeLength="523.54" waitSteps="213" timeLoss="251.02" rerouteNo="0" devices="tripinfo_left_30" vType="SUMO_DEFAULT_TYPE" speedFactor="1.00" vaporized=""/>
    <tripinfo id="left_44" depart="125.00" departLane="11_0" departPos="5.10" departSpeed="0.00" departDelay="2.00" arrival="365.00" arrivalLane="11_0" arrivalPos="100.00" arrivalSpeed="12.80" duration="240.00" routeLength="523.54" waitSteps="165" timeLoss="201.60" rerouteNo="0" devices="tripinfo_left_44" vType="SUMO_DEFAULT_TYPE" speedFactor="1.00" vaporized=""/>
    <tripinfo id="left_39" depart="117.00" departLane="7_0" departPos="5.10" departSpeed="0.00" departDelay="0.00" arrival="365.00" arrivalLane="7_0" arrivalPos="100.00" arrivalSpeed="12.80" duration="248.00" routeLength="523.54" waitSteps="172" timeLoss="209.60" rerouteNo="0" devices="tripinfo_left_39" vType="SUMO_DEFAULT_TYPE" speedFactor="1.00" vaporized=""/>
    <tripinfo id="left_46" depart="129.00" departLane="11_0" departPos="5.10" departSpeed="0.00" departDelay="4.00" arrival="366.00" arrivalLane="11_0" arrivalPos="100.00" arrivalSpeed="12.80" duration="237.00" routeLength="523.54" waitSteps="163" timeLoss="199.11" rerouteNo="0" devices="tripinfo_left_46" vType="SUMO_DEFAULT_TYPE" speedFactor="1.00" vaporized=""/>
    <tripinfo id="left_41" depart="121.00" departLane="7_0" departPos="5.10" departSpeed="0.00" departDelay="1.00" arrival="366.00" arrivalLane="7_0" arrivalPos="100.00" arrivalSpeed="12.80" duration="245.00" routeLength="523.54" waitSteps="170" timeLoss="207.11" rerouteNo="0" devices="tripinfo_left_41" vType="SUMO_DEFAULT_TYPE" speedFactor="1.00" vaporized=""/>
    <tripinfo id="left_50" depart="133.00" departLane="11_0" departPos="5.10" departSpeed="0.00" departDelay="4.00" arrival="368.00" arrivalLane="11_0" arrivalPos="100.00" arrivalSpeed="13.60" duration="235.00" routeLength="523.54" waitSteps="162" timeLoss="196.63" rerouteNo="0" devices="tripinfo_left_50" vType="SUMO_DEFAULT_TYPE" speedFactor="1.00" vaporized=""/>
    <tripinfo id="left_43" depart="125.00" departLane="7_0" departPos="5.10" departSpeed="0.00" departDelay="2.00" arrival="368.00" arrivalLane="7_0" arrivalPos="100.00" arrivalSpeed="13.60" duration="243.00" routeLength="523.54" waitSteps="168" timeLoss="204.63" rerouteNo="0" devices="tripinfo_left_43" vType="SUMO_DEFAULT_TYPE" speedFactor="1.00" vaporized=""/>
    <tripinfo id="left_55" depart="137.00" departLane="11_0" departPos="5.10" departSpeed="0.00" departDelay="0.00" arrival="369.00" arrivalLane="11_0" arrivalPos="100.00" arrivalSpeed="13.60" duration="232.00" routeLength="523.54" waitSteps="161" timeLoss="194.14" rerouteNo="0" devices="tripinfo_left_55" vType="SUMO_DEFAULT_TYPE" speedFactor="1.00" vaporized=""/>
    <tripinfo id="left_45" depart="129.00" departLane="7_0" departPos="5.10" departSpeed="0.00" departDelay="4.00" arrival="369.00" arrivalLane="7_0" arrivalPos="100.00" arrivalSpeed="13.60" duration="240.00" routeLength="523.54" waitSteps="166" timeLoss="202.14" rerouteNo="0" devices="tripinfo_left_45" vType="SUMO_DEFAULT_TYPE" speedFactor="1.00" vaporized=""/>
    <tripinfo id="left_59" depart="183.00" departLane="11_0" departPos="5.10" departSpeed="0.00" departDelay="36.00" arrival="371.00" arrivalLane="11_0" arrivalPos="100.00" arrivalSpeed="13.89" duration="188.00" routeLength="523.54" waitSteps="119" timeLoss="149.64" rerouteNo="0" devices="tripinfo_left_59" vType="SUMO_DEFAULT_TYPE" speedFactor="1.00" vaporized=""/>
    <tripinfo id="left_49" depart="133.00" departLane="7_0" departPos="5.10" departSpeed="0.00" departDelay="4.00" arrival="371.00" arrivalLane="7_0" arrivalPos="100.00" arrivalSpeed="13.89" duration="238.00" routeLength="523.54" waitSteps="165" timeLoss="199.64" rerouteNo="0" devices="tripinfo_left_49" vType="SUMO_DEFAULT_TYPE" speedFactor="1.00" vaporized=""/>
    <tripinfo id="left_54" depart="137.00" departLane="7_0" departPos="5.10" departSpeed="0.00" departDelay="0.00" arrival="372.00" arrivalLane="7_0" arrivalPos="100.00" arrivalSpeed="13.89" duration="235.00" routeLength="523.54" waitSteps="164" timeLoss="197.15" rerouteNo="0" devices="tripinfo_left_54" vType="SUMO_DEFAULT_TYPE" speedFactor="1.00" vaporized=""/>
    <tripinfo id="right_25" depart="139.00" departLane="1_0" departPos="5.10" departSpeed="0.00" departDelay="75.00" arrival="489.00" arrivalLane="1_0" arrivalPos="95.25" arrivalSpeed="12.00" duration="350.00" routeLength="699.79" waitSteps="262" timeLoss="299.33" rerouteNo="0" devices="tripinfo_right_25" vType="SUMO_DEFAULT_TYPE" speedFactor="1.00" vaporized=""/>
    <tripinfo id="right_28" depart="144.00" departLane="1_0" departPos="5.10" departSpeed="0.00" departDelay="75.00" arrival="491.00" arrivalLane="1_0" arrivalPos="95.25" arrivalSpeed="12.80" duration="347.00" routeLength="699.79" waitSteps="257" timeLoss="295.92" rerouteNo="0" devices="tripinfo_right_28" vType="SUMO_DEFAULT_TYPE" speedFactor="1.00" vaporized=""/>
    <tripinfo id="left_15" depart="35.00" departLane="1_0" departPos="5.10" departSpeed="0.00" departDelay="4.00" arrival="492.00" arrivalLane="1_0" arrivalPos="95.25" arrivalSpeed="12.80" duration="457.00" routeLength="915.75" waitSteps="337" timeLoss="390.87" rerouteNo="0" devices="tripinfo_left_15" vType="SUMO_DEFAULT_TYPE" speedFactor="1.00" vaporized=""/>
    <tripinfo id="right_32" depart="152.00" departLane="1_0" departPos="5.10" departSpeed="0.00" departDelay="71.00" arrival="494.00" arrivalLane="1_0" arrivalPos="95.25" arrivalSpeed="13.60" duration="342.00" routeLength="699.79" waitSteps="254" timeLoss="290.94" rerouteNo="0" devices="tripinfo_right_32" vType="SUMO_DEFAULT_TYPE" speedFactor="1.00" vaporized=""/>
    <tripinfo id="right_34" depart="160.00" departLane="1_0" departPos="5.10" departSpeed="0.00" departDelay="68.00" arrival="495.00" arrivalLane="1_0" arrivalPos="95.25" arrivalSpeed="13.60" duration="335.00" routeLength="699.79" waitSteps="248" timeLoss="284.45" rerouteNo="0" devices="tripinfo_right_34" vType="SUMO_DEFAULT_TYPE" speedFactor="1.00" vaporized=""/>
    <tripinfo id="right_38" depart="176.00" departLane="1_0" departPos="5.10" departSpeed="0.00" departDelay="61.00" arrival="497.00" arrivalLane="1_0" arrivalPos="95.25" arrivalSpeed="13.89" duration="321.00" routeLength="699.79" waitSteps="235" timeLoss="269.95" rerouteNo="0" devices="tripinfo_right_38" vType="SUMO_DEFAULT_TYPE" speedFactor="1.00" vaporized=""/>
    <tripinfo id="right_47" depart="180.00" departLane="1_0" departPos="5.10" departSpeed="0.00" departDelay="54.00" arrival="498.00" arrivalLane="1_0" arrivalPos="95.25" arrivalSpeed="13.89" duration="318.00" routeLength="699.79" waitSteps="233" timeLoss="267.46" rerouteNo="0" devices="tripinfo_right_47" vType="SUMO_DEFAULT_TYPE" speedFactor="1.00" vaporized=""/>
    <tripinfo id="right_48" depart="184.00" departLane="1_0" departPos="5.10" departSpeed="0.00" departDelay="57.00" arrival="500.00" arrivalLane="1_0" arrivalPos="95.25" arrivalSpeed="13.89" duration="316.00" routeLength="699.79" waitSteps="231" timeLoss="264.96" rerouteNo="0" devices="tripinfo_right_48" vType="SUMO_DEFAULT_TYPE" speedFactor="1.00" vaporized=""/>
    <tripinfo id="right_52" depart="192.00" departLane="1_0" departPos="5.10" departSpeed="0.00" departDelay="60.00" arrival="501.00" arrivalLane="1_0" arrivalPos="95.25" arrivalSpeed="13.89" duration="309.00" routeLength="699.79" waitSteps="226" timeLoss="258.46" rerouteNo="0" devices="tripinfo_right_52" vType="SUMO_DEFAULT_TYPE" speedFactor="1.00" vaporized=""/>
    <tripinfo id="left_64" depart="187.00" departLane="11_0" departPos="5.10" departSpeed="0.00" departDelay="28.00" arrival="533.00" arrivalLane="11_0" arrivalPos="100.00" arrivalSpeed="12.80" duration="346.00" routeLength="523.54" waitSteps="271" timeLoss="307.60" rerouteNo="0" devices="tripinfo_left_64" vType="SUMO_DEFAULT_TYPE" speedFactor="1.00" vaporized=""/>
    <tripinfo id="left_58" depart="186.00" departLane="7_0" departPos="5.10" departSpeed="0.00" departDelay="39.00" arrival="533.00" arrivalLane="7_0" arrivalPos="100.00" arrivalSpeed="12.80" duration="347.00" routeLength="523.54" waitSteps="271" timeLoss="308.60" rerouteNo="0" devices="tripinfo_left_58" vType="SUMO_DEFAULT_TYPE" speedFactor="1.00" vaporized=""/>
    <tripinfo id="left_72" depart="204.00" departLane="11_0" departPos="5.10" departSpeed="0.00" departDelay="0.00" arrival="534.00" arrivalLane="11_0" arrivalPos="100.00" arrivalSpeed="12.80" duration="330.00" routeLength="523.54" waitSteps="255" timeLoss="292.11" rerouteNo="0" devices="tripinfo_left_72" vType="SUMO_DEFAULT_TYPE" speedFactor="1.00" vaporized=""/>
    <tripinfo id="left_63" depart="190.00" departLane="7_0" departPos="5.10" departSpeed="0.00" departDelay="31.00" arrival="534.00" arrivalLane="7_0" arrivalPos="100.00" arrivalSpeed="12.80" duration="344.00" routeLength="523.54" waitSteps="268" timeLoss="306.11" rerouteNo="0" devices="tripinfo_left_63" vType="SUMO_DEFAULT_TYPE" speedFactor="1.00" vaporized=""/>
    <tripinfo id="left_77" depart="218.00" departLane="11_0" departPos="5.10" departSpeed="0.00" departDelay="0.00" arrival="536.00" arrivalLane="11_0" arrivalPos="100.00" arrivalSpeed="13.60" duration="318.00" routeLength="523.54" waitSteps="243" timeLoss="279.63" rerouteNo="0" devices="tripinfo_left_77" vType="SUMO_DEFAULT_TYPE" speedFactor="1.00" vaporized=""/>
    <tripinfo id="left_71" depart="204.00" departLane="7_0" departPos="5.10" departSpeed="0.00" departDelay="0.00" arrival="536.00" arrivalLane="7_0" arrivalPos="100.00" arrivalSpeed="13.60" duration="332.00" routeLength="523.54" waitSteps="256" timeLoss="293.63" rerouteNo="0" devices="tripinfo_left_71" vType="SUMO_DEFAULT_TYPE" speedFactor="1.00" vaporized=""/>
    <tripinfo id="left_81" depart="232.00" departLane="11_0" departPos="5.10" departSpeed="0.00" departDelay="0.00" arrival="537.00" arrivalLane="11_0" arrivalPos="100.00" arrivalSpeed="13.60" duration="305.00" routeLength="523.54" waitSteps="231" timeLoss="267.14" rerouteNo="0" devices="tripinfo_left_81" vType="SUMO_DEFAULT_TYPE" speedFactor="1.00" vaporized=""/>
    <tripinfo id="left_76" depart="218.00" departLane="7_0" departPos="5.10" departSpeed="0.00" departDelay="0.00" arrival="537.00" arrivalLane="7_0" arrivalPos="100.00" arrivalSpeed="13.60" duration="319.00" routeLength="523.54" waitSteps="244" timeLoss="281.14" rerouteNo="0" devices="tripinfo_left_76" vType="SUMO_DEFAULT_TYPE" speedFactor="1.00" vaporized=""/>
    <tripinfo id="left_90" depart="253.00" departLane="11_0" departPos="5.10" departSpeed="0.00" departDelay="0.00" arrival="539.00" arrivalLane="11_0" arrivalPos="100.00" arrivalSpeed="13.89" duration="286.00" routeLength="523.54" waitSteps="212" timeLoss="247.64" rerouteNo="0" devices="tripinfo_left_90" vType="SUMO_DEFAULT_TYPE" speedFactor="1.00" vaporized=""/>
    <tripinfo id="left_80" depart="232.00" departLane="7_0" departPos="5.10" departSpeed="0.00" departDelay="0.00" arrival="539.00" arrivalLane="7_0" arrivalPos="100.00" arrivalSpeed="13.89" duration="307.00" routeLength="523.54" waitSteps="232" timeLoss="268.64" rerouteNo="0" devices="tripinfo_left_80" vType="SUMO_DEFAULT_TYPE" speedFactor="1.00" vaporized=""/>
    <tripinfo id="left_94" depart="258.00" departLane="11_0" departPos="5.10" departSpeed="0.00" departDelay="0.00" arrival="540.00" arrivalLane="11_0" arrivalPos="100.00" arrivalSpeed="13.89" duration="282.00" routeLength="523.54" waitSteps="208" timeLoss="244.15" rerouteNo="0" devices="tripinfo_left_94" vType="SUMO_DEFAULT_TYPE" speedFactor="1.00" vaporized=""/>
    <tripinfo id="left_89" depart="253.00" departLane="7_0" departPos="5.10" departSpeed="0.00" departDelay="0.00" arrival="540.00" arrivalLane="7_0" arrivalPos="100.00" arrivalSpeed="13.89" duration="287.00" routeLength="523.54" waitSteps="212" timeLoss="249.15" rerouteNo="0" devices="tripinfo_left_89" vType="SUMO_DEFAULT_TYPE" speedFactor="1.00" vaporized=""/>
    <tripinfo id="left_97" depart="262.00" departLane="11_0" departPos="5.10" departSpeed="0.00" departDelay="0.00" arrival="542.00" arrivalLane="11_0" arrivalPos="100.00" arrivalSpeed="13.89" duration="280.00" routeLength="523.54" waitSteps="206" timeLoss="241.65" rerouteNo="0" devices="tripinfo_left_97" vType="SUMO_DEFAULT_TYPE" speedFactor="1.00" vaporized=""/>
    <tripinfo id="left_93" depart="258.00" departLane="7_0" departPos="5.10" departSpeed="0.00" departDelay="0.00" arrival="542.00" arrivalLane="7_0" arrivalPos="100.00" arrivalSpeed="13.89" duration="284.00" routeLength="523.54" waitSteps="209" timeLoss="245.65" rerouteNo="0" devices="tripinfo_left_93" vType="SUMO_DEFAULT_TYPE" speedFactor="1.00" vaporized=""/>
    <tripinfo id="left_96" depart="262.00" departLane="7_0" departPos="5.10" departSpeed="0.00" departDelay="0.00" arrival="543.00" arrivalLane="7_0" arrivalPos="100.00" arrivalSpeed="13.89" duration="281.00" routeLength="523.54" waitSteps="207" timeLoss="243.15" rerouteNo="0" devices="tripinfo_left_96" vType="SUMO_DEFAULT_TYPE" speedFactor="1.00" vaporized=""/>
    <tripinfo id="left_98" depart="266.00" departLane="7_0" departPos="5.10" departSpeed="0.00" departDelay="1.00" arrival="545.00" arrivalLane="7_0" arrivalPos="100.00" arrivalSpeed="13.89" duration="279.00" routeLength="523.54" waitSteps="205" timeLoss="240.66" rerouteNo="0" devices="tripinfo_left_98" vType="SUMO_DEFAULT_TYPE" speedFactor="1.00" vaporized=""/>
    <tripinfo id="right_5" depart="7.00" departLane="1_0" departPos="5.10" departSpeed="0.00" departDelay="3.00" arrival="657.00" arrivalLane="1_0" arrivalPos="95.25" arrivalSpeed="12.00" duration="650.00" routeLength="1110.43" waitSteps="506" timeLoss="569.77" rerouteNo="0" devices="tripinfo_right_5" vType="SUMO_DEFAULT_TYPE" speedFactor="1.00" vaporized=""/>
    <tripinfo id="right_9" depart="16.00" departLane="1_0" departPos="5.10" departSpeed="0.00" departDelay="0.00" arrival="659.00" arrivalLane="1_0" arrivalPos="95.25" arrivalSpeed="12.80" duration="643.00" routeLength="1110.43" waitSteps="498" timeLoss="562.35" rerouteNo="0" devices="tripinfo_right_9" vType="SUMO_DEFAULT_TYPE" speedFactor="1.00" vaporized=""/>
    <tripinfo id="right_56" depart="328.00" departLane="1_0" departPos="5.10" departSpeed="0.00" departDelay="190.00" arrival="660.00" arrivalLane="1_0" arrivalPos="95.25" arrivalSpeed="12.80" duration="332.00" routeLength="699.79" waitSteps="244" timeLoss="281.42" rerouteNo="0" devices="tripinfo_right_56" vType="SUMO_DEFAULT_TYPE" speedFactor="1.00" vaporized=""/>
    <tripinfo id="right_57" depart="332.00" departLane="1_0" departPos="5.10" departSpeed="0.00" departDelay="193.00" arrival="662.00" arrivalLane="1_0" arrivalPos="95.25" arrivalSpeed="13.60" duration="330.00" routeLength="699.79" waitSteps="242" timeLoss="278.94" rerouteNo="0" devices="tripinfo_right_57" vType="SUMO_DEFAULT_TYPE" speedFactor="1.00" vaporized=""/>
    <tripinfo id="right_61" depart="340.00" departLane="1_0" departPos="5.10" departSpeed="0.00" departDelay="190.00" arrival="663.00" arrivalLane="1_0" arrivalPos="95.25" arrivalSpeed="13.60" duration="323.00" routeLength="699.79" waitSteps="236" timeLoss="272.45" rerouteNo="0" devices="tripinfo_right_61" vType="SUMO_DEFAULT_TYPE" speedFactor="1.00" vaporized=""/>
    <tripinfo id="right_62" depart="344.00" departLane="1_0" departPos="5.10" departSpeed="0.00" departDelay="192.00" arrival="665.00" arrivalLane="1_0" arrivalPos="95.25" arrivalSpeed="13.89" duration="321.00" routeLength="699.79" waitSteps="234" timeLoss="269.95" rerouteNo="0" devices="tripinfo_right_62" vType="SUMO_DEFAULT_TYPE" speedFactor="1.00" vaporized=""/>
    <tripinfo id="right_65" depart="348.00" departLane="1_0" departPos="5.10" departSpeed="0.00" departDelay="184.00" arrival="666.00" arrivalLane="1_0" arrivalPos="95.25" arrivalSpeed="13.89" duration="318.00" routeLength="699.79" waitSteps="232" timeLoss="267.46" rerouteNo="0" devices="tripinfo_right_65" vType="SUMO_DEFAULT_TYPE" speedFactor="1.00" vaporized=""/>
    <tripinfo id="right_66" depart="352.00" departLane="1_0" departPos="5.10" departSpeed="0.00" departDelay="181.00" arrival="668.00" arrivalLane="1_0" arrivalPos="95.25" arrivalSpeed="13.89" duration="316.00" routeLength="699.79" waitSteps="230" timeLoss="264.96" rerouteNo="0" devices="tripinfo_right_66" vType="SUMO_DEFAULT_TYPE" speedFactor="1.00" vaporized=""/>
    <tripinfo id="right_67" depart="356.00" departLane="1_0" departPos="5.10" departSpeed="0.00" departDelay="177.00" arrival="669.00" arrivalLane="1_0" arrivalPos="95.25" arrivalSpeed="13.89" duration="313.00" routeLength="699.79" waitSteps="228" timeLoss="262.46" rerouteNo="0" devices="tripinfo_right_67" vType="SUMO_DEFAULT_TYPE" speedFactor="1.00" vaporized=""/>
    <tripinfo id="right_68" depart="360.00" departLane="1_0" departPos="5.10" departSpeed="0.00" departDelay="180.00" arrival="671.00" arrivalLane="1_0" arrivalPos="95.25" arrivalSpeed="13.89" duration="311.00" routeLength="699.79" waitSteps="226" timeLoss="259.97" rerouteNo="0" devices="tripinfo_right_68" vType="SUMO_DEFAULT_TYPE" speedFactor="1.00" vaporized=""/>
    <tripinfo id="right_69" depart="364.00" departLane="1_0" departPos="5.10" departSpeed="0.00" departDelay="182.00" arrival="672.00" arrivalLane="1_0" arrivalPos="95.25" arrivalSpeed="13.89" duration="308.00" routeLength="699.79" waitSteps="224" timeLoss="257.47" rerouteNo="0" devices="tripinfo_right_69" vType="SUMO_DEFAULT_TYPE" speedFactor="1.00" vaporized=""/>
    <tripinfo id="right_70" depart="368.00" departLane="1_0" departPos="5.10" departSpeed="0.00" departDelay="176.00" arrival="674.00" arrivalLane="1_0" arrivalPos="95.25" arrivalSpeed="13.89" duration="306.00" routeLength="699.79" waitSteps="222" timeLoss="254.98" rerouteNo="0" devices="tripinfo_right_70" vType="SUMO_DEFAULT_TYPE" speedFactor="1.00" vaporized=""/>
    <tripinfo id="right_74" depart="376.00" departLane="1_0" departPos="5.10" departSpeed="0.00" departDelay="163.00" arrival="675.00" arrivalLane="1_0" arrivalPos="95.25" arrivalSpeed="13.89" duration="299.00" routeLength="699.79" waitSteps="215" timeLoss="248.48" rerouteNo="0" devices="tripinfo_right_74" vType="SUMO_DEFAULT_TYPE" speedFactor="1.00" vaporized=""/>
    <tripinfo id="left_99" depart="363.00" departLane="11_0" departPos="5.10" departSpeed="0.00" departDelay="98.00" arrival="701.00" arrivalLane="11_0" arrivalPos="100.00" arrivalSpeed="12.80" duration="338.00" routeLength="523.54" waitSteps="262" timeLoss="299.60" rerouteNo="0" devices="tripinfo_left_99" vType="SUMO_DEFAULT_TYPE" speedFactor="1.00" vaporized=""/>
    <tripinfo id="left_101" depart="372.00" departLane="7_0" departPos="5.10" departSpeed="0.00" departDelay="91.00" arrival="701.00" arrivalLane="7_0" arrivalPos="100.00" arrivalSpeed="12.80" duration="329.00" routeLength="523.54" waitSteps="255" timeLoss="290.60" rerouteNo="0" devices="tripinfo_left_101" vType="SUMO_DEFAULT_TYPE" speedFactor="1.00" vaporized=""/>